HEADER
"PSFversion" "1.00"
"simulator" "spectre"
"version" "12.1.0.347.isr3"
"date" "7:47:54 PM, Sun Nov 13, 2022"
"design" "// Generated by amp topo opt program"
"analysis type" "info"
"analysis name" "designParamVals"
"analysis description" "Circuit Information"
"xVecSorted" "unknown"
"tolerance.relative" 0.00100000
TYPE
"top-level" STRUCT(
"temp" FLOAT DOUBLE
"tnom" FLOAT DOUBLE
"time" FLOAT DOUBLE
"r_1_0" FLOAT DOUBLE
"c_vin_2_00" FLOAT DOUBLE
"r_vin_2_00" FLOAT DOUBLE
"r_vin_2_2" FLOAT DOUBLE
"gm_vin_2_vin" FLOAT DOUBLE
"rscl_2_vo_prs" FLOAT DOUBLE
"g_2_vo" FLOAT DOUBLE
"rscl_1_2_prs" FLOAT DOUBLE
"g_1_2" FLOAT DOUBLE
"rscl_vin_1_prs" FLOAT DOUBLE
"g_vin_1" FLOAT DOUBLE
) PROP(
"key" "parameters"
)
VALUE
"top-level" "top-level" (
2.700000000000000e+01
2.700000000000000e+01
0.000000000000000e+00
9.734197999999999e-01
8.713809000000000e-01
5.314853000000000e+01
7.706413000000000e+00
6.186897000000000e-01
7.961571000000001e+01
4.793230000000000e-02
5.513059000000000e+01
1.939001000000000e-01
6.551004000000000e+01
9.433348000000000e-01
)
END
