HEADER
"PSFversion" "1.00"
"simulator" "spectre"
"version" "12.1.0.347.isr3"
"date" "7:47:54 PM, Sun Nov 13, 2022"
"design" "// Generated by amp topo opt program"
"analysis type" "info.subckts"
"analysis name" "subckts"
"analysis description" "Circuit Information"
"xVecSorted" "unknown"
"tolerance.relative" 0.00100000
END
